LAMMPS (2 Aug 2023 - Update 3)

units lj
atom_style atomic
lattice fcc 0.8442
Lattice spacing in x,y,z = 1.6795962 1.6795962 1.6795962
region box block 0 10 0 10 0 10
create_box 1 box
Created orthogonal box = (0 0 0) to (16.795962 16.795962 16.795962)
  1 by 1 by 1 MPI processor grid
create_atoms 1 box
Created 4000 atoms
  using lattice units in orthogonal box = (0 0 0) to (16.795962 16.795962 16.795962)
  create_atoms CPU = 0.001 seconds
mass 1 1.0
velocity all create 1.44 87287
pair_style lj/cut 2.5
pair_coeff 1 1 1.0 1.0 2.5
fix 1 all nvt temp 1.0 1.0 0.1
thermo 100
thermo_style custom step temp press
thermo_modify flush yes
run 10000
Generated 0 of 0 mixed pair_coeff terms from geometric mixing rule
Neighbor list info ...
  update: every = 1 steps, delay = 0 steps, check = yes
  max neighbors/atom: 2000, page size: 100000
  master list distance cutoff = 2.8
  ghost atom cutoff = 2.8
  binsize = 1.4, bins = 12 12 12
  1 neighbor lists, perpetual/occasional/extra = 1 0 0
  (1) pair lj/cut, perpetual
      attributes: half, newton on
      pair build: half/bin/atomonly/newton
      stencil: half/bin/3d
      bin: standard
Per MPI rank memory allocation (min/avg/max) = 3.722 | 3.722 | 3.722 Mbytes
   Step          Temp          Press     
         0   1.44          -5.0199732    
       100   0.98992503     1.6376064    
       200   0.97017065     2.1660699    
       300   0.99855497     2.5296203    
       400   0.98969723     2.4711177    
       500   1.0158211      2.4052812    
       600   1.0061908      2.5115375    
       700   0.99595089     2.4801805    
       800   0.97960371     2.5811692    
       900   1.0081296      2.408933     
      1000   0.99661186     2.6825284    
      1100   1.0062489      2.530172     
      1200   0.96731262     2.4587373    
      1300   0.99324696     2.6464167    
      1400   0.98019832     2.6228175    
      1500   1.039089       2.6147415    
      1600   0.98751657     2.5179203    
      1700   0.99111324     2.5626067    
      1800   1.017354       2.6199352    
      1900   1.0053728      2.628308     
      2000   0.98078848     2.6006867    
      2100   0.98673007     2.4853314    
      2200   0.97030172     2.6556952    
      2300   0.96100994     2.5988708    
      2400   1.0102485      2.467864     
      2500   0.99725253     2.5281526    
      2600   0.99482881     2.4720036    
      2700   1.0213425      2.692886     
      2800   1.0105584      2.552206     
      2900   1.0012353      2.6420855    
      3000   1.0111902      2.6117901    
      3100   1.0027341      2.5917406    
      3200   0.99152488     2.4358228    
      3300   0.98427132     2.5188383    
      3400   0.98758958     2.5522973    
      3500   0.98764328     2.4790263    
      3600   1.0076013      2.6239085    
      3700   0.99715498     2.5791082    
      3800   1.0026505      2.6047788    
      3900   1.0062016      2.6573649    
      4000   1.0063437      2.6908959    
      4100   0.99575554     2.4099432    
      4200   0.98321413     2.5094596    
      4300   0.98036155     2.54139      
      4400   0.99849096     2.6112405    
      4500   0.99323698     2.504481     
      4600   0.98631426     2.6204213    
      4700   0.97433946     2.5393209    
      4800   0.99442887     2.6070481    
      4900   0.99844826     2.5542186    
      5000   1.0266111      2.5544261    
      5100   1.013988       2.6404098    
      5200   1.0065946      2.5667127    
      5300   0.99722074     2.5957324    
      5400   1.0170399      2.5864241    
      5500   0.98358859     2.519622     
      5600   1.0180728      2.5553202    
      5700   0.98658323     2.5124291    
      5800   1.0059332      2.6581614    
      5900   1.0064398      2.5750865    
      6000   1.0074393      2.5338408    
      6100   1.0026789      2.5866661    
      6200   0.99283038     2.3782357    
      6300   0.98011527     2.6678988    
      6400   0.98892361     2.6105408    
      6500   0.97116811     2.5312673    
      6600   1.0034472      2.7897337    
      6700   1.0196386      2.5704896    
      6800   0.99471225     2.6611217    
      6900   1.0044925      2.6567968    
      7000   0.99734762     2.5690111    
      7100   1.0119025      2.6188024    
      7200   0.98388644     2.6450232    
      7300   0.98356777     2.5425399    
      7400   1.0010627      2.5331684    
      7500   1.0088517      2.6929866    
      7600   1.0005185      2.714721     
      7700   0.98767464     2.5655186    
      7800   0.99101678     2.439727     
      7900   0.99687707     2.6821544    
      8000   0.98118883     2.5495909    
      8100   0.98573582     2.5186882    
      8200   0.98593993     2.6080727    
      8300   0.99464837     2.4865853    
      8400   1.0170286      2.4899873    
      8500   1.0063164      2.6729782    
      8600   1.0197173      2.6503081    
      8700   1.0216922      2.6657733    
      8800   0.99470448     2.6556373    
      8900   1.0152738      2.4782999    
      9000   0.99209252     2.6936923    
      9100   1.0180656      2.5156659    
      9200   1.0045009      2.5935609    
      9300   0.99113217     2.4272197    
      9400   0.99554673     2.5491346    
      9500   1.0061449      2.4936752    
      9600   0.98852658     2.5996271    
      9700   0.99615205     2.4763281    
      9800   0.99717546     2.486796     
      9900   1.0204503      2.6356018    
     10000   1.0025707      2.6348891    
Loop time of 18.0286 on 1 procs for 10000 steps with 4000 atoms

Performance: 239619.483 tau/day, 554.675 timesteps/s, 2.219 Matom-step/s
99.7% CPU use with 1 MPI tasks x no OpenMP threads

MPI task timing breakdown:
Section |  min time  |  avg time  |  max time  |%varavg| %total
---------------------------------------------------------------
Pair    | 11.595     | 11.595     | 11.595     |   0.0 | 64.32
Neigh   | 5.6996     | 5.6996     | 5.6996     |   0.0 | 31.61
Comm    | 0.25559    | 0.25559    | 0.25559    |   0.0 |  1.42
Output  | 0.0018578  | 0.0018578  | 0.0018578  |   0.0 |  0.01
Modify  | 0.39548    | 0.39548    | 0.39548    |   0.0 |  2.19
Other   |            | 0.08094    |            |       |  0.45

Nlocal:           4000 ave        4000 max        4000 min
Histogram: 1 0 0 0 0 0 0 0 0 0
Nghost:           5500 ave        5500 max        5500 min
Histogram: 1 0 0 0 0 0 0 0 0 0
Neighs:         150960 ave      150960 max      150960 min
Histogram: 1 0 0 0 0 0 0 0 0 0

Total # of neighbors = 150960
Ave neighs/atom = 37.74
Neighbor list builds = 1368
Dangerous builds = 0
Total wall time: 0:00:54
